ITEM: TIMESTEP
15000
ITEM: NUMBER OF ATOMS
3840
ITEM: BOX BOUNDS pp pp pp
-11.9064 11.9064
-11.9064 11.9064
-44.6492 44.6492
ITEM: ATOMS id type xs ys zs c_PE 
2 1 0.0524 0.0697202 0.0199741 -4.05524 
131 1 0.122941 0.00360193 0.0327398 -3.9129 
19 1 0.116658 0.119104 0.0010898 -4.01219 
4 1 0.178946 0.0837673 0.0171702 -3.74622 
5 1 0.229153 0.0120892 0.000160279 -3.87509 
6 1 0.321477 0.0681453 0.0196269 -3.79932 
7 1 0.369204 0.00987682 0.0017141 -3.66722 
8 1 0.453284 0.0537407 0.0199906 -3.84937 
10 1 0.552532 0.0628862 0.0228033 -3.8521 
9 1 0.501773 0.00254427 0.00114121 -4.01861 
12 1 0.696925 0.059335 0.0173348 -3.95996 
11 1 0.628939 0.0063627 0.00225567 -3.98493 
14 1 0.816447 0.0773685 0.012941 -4.05405 
16 1 0.938523 0.0704154 0.0136936 -4.27875 
143 1 0.875742 0.0118395 0.0276108 -3.84148 
18 1 0.056444 0.189675 0.0169951 -4.25947 
163 1 0.123978 0.245642 0.0328158 -3.81442 
20 1 0.181407 0.185546 0.0151216 -4.1755 
22 1 0.322665 0.20066 0.016318 -3.90198 
21 1 0.257175 0.1259 0.00827949 -3.67511 
24 1 0.439783 0.18329 0.0197613 -3.58564 
23 1 0.385679 0.133535 0.00556561 -3.81255 
39 1 0.385358 0.246466 0.000212572 -3.82208 
25 1 0.510919 0.145603 0.00222185 -3.65447 
26 1 0.577494 0.196957 0.0171987 -3.62011 
28 1 0.6809 0.190158 0.0206034 -3.85085 
27 1 0.632434 0.137614 0.00116013 -3.83101 
30 1 0.810683 0.20058 0.0132709 -4.14065 
159 1 0.871517 0.144774 0.0326338 -4.2233 
157 1 0.757649 0.132232 0.0294406 -4.08028 
32 1 0.934448 0.182562 0.0130224 -4.11819 
145 1 0.983286 0.133724 0.0330193 -3.93704 
34 1 0.0446678 0.290755 0.0219024 -3.74945 
179 1 0.118134 0.373061 0.032 -4.06947 
49 1 9.89128e-05 0.362505 0.000187053 -4.03178 
36 1 0.200531 0.309017 0.0149591 -3.85445 
165 1 0.248193 0.254155 0.0332598 -4.20902 
181 1 0.238956 0.372012 0.0306003 -3.73084 
38 1 0.311132 0.325349 0.0171957 -4.28453 
40 1 0.431739 0.309075 0.0177463 -4.10388 
42 1 0.555067 0.307671 0.0198329 -3.9431 
57 1 0.510499 0.373672 0.00557297 -4.00692 
43 1 0.616221 0.253152 0.0002782 -3.97912 
44 1 0.674479 0.317503 0.0185185 -4.07031 
45 1 0.722097 0.254395 0.00178306 -3.70204 
46 1 0.811124 0.30895 0.0155216 -4.13279 
48 1 0.929813 0.300919 0.0139151 -3.93003 
175 1 0.882617 0.251834 0.0325251 -4.19452 
177 1 0.989563 0.3731 0.0304859 -3.9957 
50 1 0.0520796 0.446377 0.0133915 -3.94646 
195 1 0.120379 0.493443 0.0324042 -4.11554 
52 1 0.183487 0.435507 0.0149658 -4.0541 
197 1 0.241051 0.499485 0.0298531 -4.0429 
54 1 0.31149 0.433854 0.0144461 -4.28619 
56 1 0.431754 0.432197 0.0133541 -3.93269 
183 1 0.384545 0.384717 0.0331825 -4.07376 
58 1 0.569304 0.450739 0.016939 -3.93706 
187 1 0.60717 0.380474 0.0310057 -3.79916 
60 1 0.688628 0.432072 0.0157103 -4.15309 
203 1 0.629757 0.495052 0.0328303 -4.04824 
62 1 0.81179 0.429317 0.0155896 -3.87768 
64 1 0.936848 0.430517 0.0135567 -3.81853 
207 1 0.88683 0.492202 0.0309319 -3.87584 
66 1 0.0671452 0.56873 0.0175991 -3.79905 
211 1 0.117082 0.61645 0.0328462 -3.71047 
68 1 0.170533 0.564964 0.0170113 -4.12545 
199 1 0.374931 0.507206 0.0311275 -4.22916 
70 1 0.29784 0.562147 0.0165148 -4.04697 
73 1 0.498157 0.500797 0.00172319 -4.05506 
201 1 0.495294 0.506137 0.0305511 -3.99158 
72 1 0.435903 0.56968 0.0136886 -4.01518 
217 1 0.494671 0.618843 0.0327283 -4.12214 
74 1 0.555886 0.56363 0.0172043 -4.13077 
77 1 0.734397 0.523896 0.00176487 -3.78091 
76 1 0.68842 0.575611 0.0178826 -3.71709 
78 1 0.825545 0.585934 0.0158867 -3.86047 
205 1 0.750935 0.505406 0.0329831 -4.10669 
193 1 0.988718 0.505018 0.0298014 -3.97253 
80 1 0.930959 0.578025 0.0176665 -4.05977 
65 1 0.978939 0.505651 0.00129232 -3.42727 
82 1 0.0554233 0.694959 0.0119868 -4.0497 
227 1 0.121133 0.744114 0.0303125 -4.05341 
84 1 0.165277 0.669905 0.0153629 -3.94454 
213 1 0.237375 0.632928 0.0320064 -4.03289 
229 1 0.234589 0.746179 0.0295326 -4.07979 
101 1 0.232542 0.736789 0.00315917 -4.09754 
86 1 0.308823 0.674744 0.0179677 -3.91083 
215 1 0.383188 0.626031 0.0299085 -3.95865 
88 1 0.430724 0.694224 0.013023 -4.09263 
233 1 0.483619 0.743873 0.0330108 -3.62498 
90 1 0.554357 0.710736 0.0183492 -3.95109 
92 1 0.674351 0.689778 0.0178691 -3.81121 
237 1 0.73811 0.73864 0.0323379 -4.01415 
109 1 0.733552 0.742761 0.00246743 -4.05857 
94 1 0.813754 0.686587 0.0175995 -4.20659 
209 1 0.997715 0.635417 0.031894 -4.17567 
96 1 0.945994 0.693529 0.014906 -4.00809 
225 1 0.00769326 0.754451 0.0285505 -4.13016 
98 1 0.0598238 0.833978 0.014485 -4.07569 
100 1 0.177019 0.820821 0.017051 -4.04196 
99 1 0.131561 0.762722 0.000757411 -3.92586 
231 1 0.366341 0.757817 0.0312161 -4.10576 
102 1 0.300793 0.818219 0.0150342 -4.23148 
104 1 0.425799 0.821179 0.0132828 -4.14283 
106 1 0.550124 0.822898 0.0196197 -3.95635 
108 1 0.675367 0.821028 0.0180428 -4.08632 
253 1 0.742844 0.869622 0.0330753 -3.9269 
127 1 0.85882 0.867244 0.00159266 -3.87904 
110 1 0.802671 0.807613 0.0184026 -4.07371 
239 1 0.888612 0.757347 0.0275225 -3.91364 
112 1 0.942063 0.824265 0.015629 -3.99451 
255 1 0.885202 0.872543 0.0332926 -4.07288 
114 1 0.0670295 0.954331 0.0163718 -4.01073 
116 1 0.177436 0.948504 0.018402 -3.68996 
133 1 0.237903 0.996442 0.0326456 -3.92241 
119 1 0.357681 0.887361 5.48639e-06 -4.0834 
118 1 0.302795 0.927224 0.0185317 -3.85231 
120 1 0.431264 0.934802 0.0155377 -3.92751 
249 1 0.471103 0.880012 0.0319524 -3.72514 
122 1 0.56324 0.937056 0.0174896 -3.97129 
13 1 0.743101 0.992029 0.00150102 -3.99182 
123 1 0.63141 0.888558 0.00304915 -3.77455 
125 1 0.748104 0.87873 0.00231513 -4.23302 
124 1 0.694828 0.940869 0.0197107 -3.98313 
126 1 0.820114 0.931979 0.0174872 -3.94341 
141 1 0.758575 0.999423 0.0327554 -4.05956 
128 1 0.940411 0.940554 0.0141117 -4.16681 
130 1 0.0587913 0.0642588 0.0527591 -4.0746 
132 1 0.190832 0.0712703 0.0461362 -3.95113 
261 1 0.237275 0.00256893 0.066556 -3.93277 
259 1 0.137825 0.00431304 0.0661738 -3.72883 
134 1 0.305209 0.0628189 0.0486535 -4.05204 
151 1 0.385851 0.124817 0.0341427 -3.95776 
136 1 0.440734 0.0635233 0.0537253 -3.9318 
138 1 0.550603 0.0656404 0.0510832 -4.11156 
139 1 0.623926 0.0148602 0.0368423 -3.91384 
140 1 0.702872 0.073745 0.0502262 -4.03256 
142 1 0.813146 0.0680758 0.0457127 -4.10232 
269 1 0.753471 0.00153067 0.0623734 -3.99404 
271 1 0.873938 0.00900471 0.0652978 -4.01844 
129 1 0.999594 0.00373168 0.0343392 -3.963 
144 1 0.931614 0.0614203 0.0438733 -3.68182 
147 1 0.116389 0.132614 0.0340729 -4.1195 
146 1 0.0566108 0.191066 0.0486283 -4.09342 
148 1 0.181778 0.201762 0.047298 -3.84894 
275 1 0.137255 0.13289 0.0648209 -4.0201 
293 1 0.24389 0.249068 0.066594 -3.96647 
277 1 0.252179 0.134251 0.0657454 -4.18343 
149 1 0.250203 0.130719 0.0339846 -3.92884 
150 1 0.309091 0.198946 0.0520035 -3.93957 
153 1 0.491165 0.130751 0.0377064 -3.95166 
152 1 0.431105 0.190855 0.0532679 -4.09876 
155 1 0.619623 0.127149 0.0348602 -4.10952 
154 1 0.571717 0.188484 0.0511977 -4.02482 
283 1 0.638215 0.128596 0.0662855 -4.06666 
156 1 0.696567 0.184961 0.0497256 -4.10852 
171 1 0.626615 0.245172 0.0350523 -3.79831 
285 1 0.75796 0.135863 0.0637523 -3.69425 
158 1 0.812009 0.194954 0.0501206 -3.82848 
287 1 0.869485 0.138907 0.0654438 -3.94571 
160 1 0.932348 0.200117 0.0529363 -3.71074 
289 1 0.996461 0.247643 0.0655191 -3.78371 
161 1 0.980157 0.235863 0.0337683 -3.82142 
291 1 0.123147 0.254082 0.0657811 -4.22456 
162 1 0.0565635 0.30923 0.0500918 -4.27822 
164 1 0.185161 0.322293 0.046862 -4.13986 
167 1 0.364638 0.260617 0.03696 -3.94097 
166 1 0.299164 0.326326 0.0501218 -4.11847 
168 1 0.429156 0.321514 0.0543142 -3.72435 
169 1 0.499686 0.25234 0.0379368 -3.91916 
185 1 0.50334 0.374821 0.0351963 -4.18242 
170 1 0.566036 0.301718 0.053788 -3.99219 
172 1 0.681468 0.312738 0.0524651 -4.07396 
173 1 0.758311 0.256318 0.0356608 -4.07045 
174 1 0.830159 0.315638 0.0526145 -3.96465 
189 1 0.75576 0.367944 0.0362096 -3.88173 
176 1 0.940723 0.319198 0.0515441 -4.18726 
191 1 0.886401 0.367949 0.0344571 -3.94438 
178 1 0.050553 0.420528 0.0504809 -3.9955 
180 1 0.187122 0.4258 0.046286 -3.92184 
307 1 0.129172 0.376449 0.066284 -4.16596 
323 1 0.12915 0.492931 0.0646312 -4.16086 
325 1 0.248548 0.499794 0.0635206 -4.07238 
182 1 0.307316 0.437775 0.0470019 -4.10028 
311 1 0.36062 0.394415 0.0654146 -3.81021 
184 1 0.445448 0.453348 0.0483637 -3.92019 
186 1 0.55519 0.445062 0.0497877 -4.11492 
188 1 0.695802 0.42948 0.0477683 -3.82826 
331 1 0.639291 0.483528 0.0611881 -3.88415 
190 1 0.806443 0.440226 0.0502005 -4.02303 
192 1 0.931603 0.432692 0.0520499 -4.05235 
194 1 0.059904 0.545041 0.0469869 -3.92912 
339 1 0.115482 0.604604 0.0642998 -3.64984 
196 1 0.187236 0.557508 0.0474477 -4.1536 
341 1 0.253462 0.610262 0.0651194 -3.93095 
198 1 0.298204 0.553747 0.0467195 -3.88052 
343 1 0.362054 0.620869 0.0598634 -3.93356 
327 1 0.370683 0.506405 0.0624284 -4.13743 
200 1 0.433775 0.56455 0.0502979 -4.00524 
329 1 0.498486 0.505528 0.0665378 -3.83472 
202 1 0.555253 0.551468 0.0469111 -4.13147 
221 1 0.748216 0.621748 0.0345149 -4.06696 
204 1 0.68239 0.564724 0.0492996 -4.00696 
333 1 0.738151 0.503195 0.0634773 -3.87633 
349 1 0.749728 0.616361 0.0627003 -4.06308 
206 1 0.832814 0.557752 0.0489745 -4.04182 
208 1 0.935748 0.563814 0.047339 -4.12219 
321 1 0.997438 0.502666 0.065288 -3.95475 
210 1 0.0568063 0.679141 0.0511294 -3.8377 
212 1 0.179954 0.691112 0.0515658 -4.14063 
214 1 0.296547 0.702496 0.0470384 -3.91042 
216 1 0.435011 0.692031 0.0497656 -4.02715 
219 1 0.618887 0.635397 0.0346997 -3.99981 
218 1 0.552553 0.689764 0.0466337 -3.92817 
347 1 0.610008 0.628307 0.0658732 -3.92093 
220 1 0.689253 0.687849 0.0537048 -4.10274 
235 1 0.632717 0.746768 0.0378265 -3.93178 
222 1 0.809988 0.691472 0.0491668 -4.01373 
223 1 0.885447 0.642477 0.0354616 -3.77068 
337 1 0.996963 0.628753 0.0655443 -4.03373 
224 1 0.939522 0.695378 0.0480264 -3.74623 
353 1 0.993687 0.741717 0.0664494 -4.0498 
243 1 0.115132 0.873974 0.0380718 -4.04391 
226 1 0.0508537 0.811599 0.0521529 -3.96479 
228 1 0.181688 0.798754 0.048958 -4.12143 
247 1 0.367008 0.859034 0.0349929 -3.84699 
230 1 0.293365 0.816453 0.0450313 -3.93657 
232 1 0.430356 0.802 0.0487403 -3.92112 
361 1 0.492251 0.756755 0.0663018 -4.13966 
234 1 0.553361 0.822021 0.0502391 -4.04895 
363 1 0.61569 0.758501 0.0655158 -4.12304 
236 1 0.701243 0.802163 0.0519 -3.85114 
238 1 0.815475 0.810444 0.0492566 -4.16928 
240 1 0.94548 0.815428 0.0485839 -4.07137 
383 1 0.882637 0.873098 0.0647109 -3.92026 
241 1 0.00340486 0.879286 0.0335752 -4.09404 
242 1 0.0643151 0.946169 0.0509458 -4.22589 
245 1 0.223696 0.879426 0.0352194 -3.95127 
244 1 0.172391 0.937901 0.0521759 -3.787 
373 1 0.243429 0.885343 0.0666169 -4.20026 
246 1 0.312882 0.933658 0.0474539 -4.04924 
135 1 0.382636 0.996508 0.0351718 -4.02437 
137 1 0.489075 0.985023 0.0342254 -3.93099 
248 1 0.430839 0.924578 0.0534105 -3.92961 
251 1 0.608979 0.881964 0.0343883 -3.63291 
250 1 0.556045 0.941435 0.0510543 -4.04752 
252 1 0.68171 0.948378 0.0483122 -3.78596 
381 1 0.747246 0.891191 0.0608091 -3.82189 
254 1 0.832665 0.935957 0.0493671 -3.93311 
256 1 0.937466 0.940582 0.0505213 -4.11131 
257 1 0.997714 0.999794 0.0666602 -4.11423 
258 1 0.060633 0.0579583 0.0839154 -4.08555 
260 1 0.198768 0.0591342 0.0836959 -3.85344 
403 1 0.136058 0.118035 0.0996656 -3.95334 
262 1 0.31455 0.0590845 0.0829944 -4.19829 
279 1 0.371241 0.12212 0.0679429 -4.13348 
264 1 0.426368 0.0575593 0.0843712 -4.07341 
281 1 0.487449 0.117428 0.0696058 -3.89637 
409 1 0.485457 0.122031 0.0988337 -3.97404 
265 1 0.504441 0.00382714 0.068311 -3.9881 
266 1 0.56576 0.0622858 0.0846015 -3.95453 
267 1 0.621318 0.00922588 0.0677409 -4.09503 
268 1 0.69075 0.0488841 0.0837228 -3.96761 
270 1 0.803109 0.064578 0.0844018 -3.91754 
399 1 0.87008 0.000496879 0.098388 -4.10388 
273 1 0.992722 0.112923 0.0690892 -3.41348 
272 1 0.945317 0.0576645 0.0818565 -3.42139 
274 1 0.0789334 0.184011 0.0838383 -3.91552 
417 1 0.0012305 0.243947 0.0998934 -3.91486 
276 1 0.183414 0.197317 0.0832266 -4.06783 
407 1 0.365728 0.125497 0.0988927 -4.19977 
278 1 0.314753 0.196616 0.0812431 -4.09464 
421 1 0.251564 0.247818 0.0993468 -4.13521 
280 1 0.426491 0.197852 0.0837483 -4.11329 
282 1 0.556007 0.167104 0.0814533 -3.81767 
297 1 0.506939 0.247434 0.0725479 -3.85266 
299 1 0.631632 0.244682 0.0706216 -3.97609 
284 1 0.701532 0.176264 0.0907053 -3.6736 
301 1 0.756518 0.241832 0.0680977 -4.14448 
303 1 0.868104 0.248091 0.0684806 -4.06346 
286 1 0.811473 0.188995 0.0895509 -3.90985 
288 1 0.935286 0.193417 0.0819025 -3.93576 
290 1 0.0435559 0.303214 0.0833117 -3.67347 
292 1 0.194817 0.313459 0.0813665 -3.9804 
419 1 0.127114 0.257298 0.0998237 -3.92042 
294 1 0.305147 0.323212 0.0867209 -3.81838 
295 1 0.376628 0.265967 0.069151 -3.85295 
296 1 0.443831 0.327403 0.0862874 -3.9829 
425 1 0.490762 0.251175 0.0973554 -3.93103 
313 1 0.512778 0.373478 0.0677514 -3.98887 
298 1 0.57054 0.323723 0.0869153 -4.08132 
300 1 0.693038 0.314107 0.083769 -3.97117 
317 1 0.751495 0.367875 0.0667474 -4.04138 
302 1 0.806447 0.303336 0.0859334 -3.95111 
305 1 0.999306 0.374538 0.0710065 -3.82616 
431 1 0.877122 0.253284 0.0986709 -3.87985 
304 1 0.942197 0.321952 0.0852853 -3.85909 
306 1 0.0671888 0.450126 0.0811994 -4.00584 
435 1 0.124818 0.381458 0.0984839 -4.20435 
309 1 0.230427 0.387527 0.0670611 -3.87608 
308 1 0.186939 0.453581 0.0840903 -3.96392 
437 1 0.245986 0.390278 0.0977406 -4.06055 
310 1 0.31365 0.464133 0.0838836 -3.99898 
312 1 0.434813 0.451122 0.0835257 -3.98885 
314 1 0.569942 0.444559 0.0816527 -3.93972 
441 1 0.508764 0.387911 0.0993714 -3.93315 
315 1 0.62936 0.383374 0.0695821 -4.03317 
316 1 0.710614 0.42941 0.0847849 -3.84179 
459 1 0.64316 0.499943 0.0939511 -3.62305 
318 1 0.807029 0.434626 0.0879721 -3.99202 
319 1 0.87287 0.375849 0.0716602 -4.07441 
335 1 0.88044 0.495287 0.0668281 -3.69967 
320 1 0.931579 0.447168 0.0837878 -3.95647 
322 1 0.0745965 0.560311 0.0816424 -3.69396 
324 1 0.188733 0.558434 0.0823244 -4.14341 
469 1 0.249154 0.61602 0.0999855 -4.11374 
326 1 0.324187 0.567086 0.0858551 -3.89383 
328 1 0.434172 0.565363 0.0837716 -4.25713 
457 1 0.50445 0.501303 0.0981762 -3.99233 
330 1 0.567986 0.555582 0.075777 -3.61927 
475 1 0.607043 0.624653 0.095277 -4.0673 
332 1 0.68423 0.566897 0.0782027 -4.03982 
477 1 0.737929 0.610354 0.0972301 -3.72102 
334 1 0.815512 0.548467 0.0803966 -4.02007 
465 1 0.994878 0.618395 0.0984897 -4.00423 
336 1 0.942047 0.551606 0.0822061 -3.95914 
355 1 0.116866 0.746018 0.0678744 -4.07147 
338 1 0.0468444 0.689426 0.0848615 -4.01471 
483 1 0.124363 0.749733 0.0983535 -4.20926 
340 1 0.176961 0.67722 0.0814753 -4.01092 
485 1 0.244394 0.745189 0.0994696 -4.19182 
342 1 0.303021 0.672578 0.0809237 -4.06862 
487 1 0.359673 0.745614 0.0991683 -4.13371 
471 1 0.368095 0.628234 0.0998627 -3.84691 
345 1 0.497845 0.627611 0.0674535 -4.12559 
344 1 0.411983 0.676143 0.0789769 -3.99319 
489 1 0.497036 0.74499 0.0972865 -3.8613 
346 1 0.55322 0.694553 0.0816812 -3.84854 
473 1 0.501577 0.628271 0.0987716 -4.00604 
348 1 0.676315 0.681327 0.0806596 -4.15943 
365 1 0.74802 0.746398 0.0694675 -3.77569 
351 1 0.863617 0.630555 0.0668104 -3.90737 
350 1 0.804047 0.666658 0.084781 -3.89667 
495 1 0.862178 0.749607 0.0983555 -4.02685 
367 1 0.875961 0.747575 0.0703717 -3.91905 
352 1 0.933552 0.675604 0.083896 -4.03824 
371 1 0.119924 0.872911 0.0676081 -4.14811 
354 1 0.0639585 0.808837 0.0834877 -4.15966 
357 1 0.238869 0.752882 0.0708279 -3.53326 
356 1 0.173375 0.817528 0.0823388 -4.09055 
375 1 0.357063 0.867886 0.0677113 -4.27176 
359 1 0.360926 0.759033 0.0682571 -3.95455 
358 1 0.286539 0.814553 0.0808197 -3.40889 
503 1 0.359021 0.859172 0.099434 -4.10627 
360 1 0.42841 0.7939 0.0851219 -3.82297 
377 1 0.481075 0.861753 0.0676414 -3.93962 
505 1 0.492876 0.863111 0.0993292 -4.15347 
362 1 0.555952 0.814283 0.0815961 -4.05317 
507 1 0.612369 0.86393 0.0997413 -3.69851 
364 1 0.686273 0.816683 0.0817819 -4.07751 
493 1 0.740439 0.75025 0.098433 -3.95057 
366 1 0.784896 0.824292 0.0807007 -3.6955 
368 1 0.934739 0.806131 0.0843801 -3.89096 
497 1 0.981233 0.872087 0.0990455 -4.10652 
369 1 0.00736255 0.878347 0.0693857 -3.97753 
385 1 0.00217759 0.99399 0.0971648 -4.04068 
370 1 0.0603499 0.940088 0.0813565 -3.92935 
387 1 0.116759 0.994496 0.0992176 -4.06695 
499 1 0.107916 0.884164 0.0984093 -3.90646 
372 1 0.175539 0.944431 0.0827803 -4.16653 
501 1 0.241039 0.87901 0.0978271 -4.01761 
263 1 0.36926 0.989053 0.0678341 -4.04991 
374 1 0.305855 0.942568 0.0853014 -4.01456 
391 1 0.378371 0.993873 0.0992169 -3.8893 
376 1 0.425617 0.927831 0.0860909 -3.98042 
393 1 0.489647 0.988486 0.0964455 -3.72296 
395 1 0.622193 0.998194 0.0976583 -3.86007 
379 1 0.613884 0.876337 0.0683691 -3.89004 
378 1 0.547107 0.93253 0.083924 -3.95038 
380 1 0.683704 0.935182 0.086047 -3.93924 
382 1 0.807898 0.942761 0.0822313 -4.1632 
511 1 0.87137 0.879869 0.0981242 -4.1768 
384 1 0.933379 0.93473 0.0827065 -4.12452 
386 1 0.0731479 0.0490522 0.11659 -3.94415 
529 1 0.0286172 0.120858 0.132805 -3.80273 
388 1 0.18655 0.0598821 0.117165 -4.0282 
533 1 0.248008 0.116287 0.13211 -4.19629 
517 1 0.236411 0.00531246 0.132523 -3.86504 
390 1 0.303259 0.0407487 0.115577 -3.92055 
405 1 0.256769 0.123565 0.101369 -4.13185 
392 1 0.443939 0.0525998 0.113321 -3.97582 
535 1 0.377949 0.110247 0.128569 -3.98082 
411 1 0.623388 0.118892 0.10054 -4.00073 
394 1 0.552269 0.0566732 0.118941 -4.01598 
396 1 0.695805 0.0482526 0.120059 -3.79637 
413 1 0.750295 0.109214 0.103804 -3.78518 
398 1 0.828768 0.0664435 0.119542 -3.93872 
415 1 0.882896 0.12165 0.100094 -3.91973 
400 1 0.954543 0.0611941 0.116083 -4.02575 
401 1 0.000619446 0.139809 0.1008 -3.9184 
402 1 0.0547304 0.193693 0.119073 -3.76492 
404 1 0.184195 0.203382 0.114732 -3.89208 
531 1 0.127136 0.133107 0.128663 -3.88739 
549 1 0.252648 0.239943 0.131838 -3.60365 
406 1 0.311676 0.194573 0.116945 -3.93855 
537 1 0.498195 0.131263 0.131328 -4.10039 
408 1 0.420992 0.193954 0.112386 -3.98745 
553 1 0.494648 0.24439 0.127291 -3.92906 
539 1 0.620893 0.131566 0.131973 -3.96596 
427 1 0.614168 0.244223 0.105195 -3.54609 
410 1 0.539257 0.182503 0.112665 -3.5262 
412 1 0.683238 0.189177 0.118032 -3.90863 
429 1 0.75746 0.244465 0.104362 -3.88346 
414 1 0.832476 0.185233 0.125296 -3.50788 
416 1 0.951998 0.188421 0.11929 -4.04534 
418 1 0.067716 0.306043 0.11522 -3.68547 
561 1 0.0172387 0.370652 0.128858 -3.98268 
547 1 0.119012 0.264341 0.13216 -3.74909 
420 1 0.200019 0.325942 0.114494 -4.23693 
563 1 0.13243 0.372141 0.133187 -4.20719 
423 1 0.366341 0.260809 0.10023 -4.1939 
422 1 0.305613 0.325834 0.117372 -3.98658 
567 1 0.367568 0.37426 0.13111 -4.01305 
424 1 0.447662 0.332199 0.113824 -4.12149 
551 1 0.387543 0.265215 0.128749 -3.94127 
426 1 0.562003 0.31482 0.113292 -3.77815 
428 1 0.69701 0.307984 0.120622 -3.84917 
445 1 0.771363 0.350684 0.106597 -3.90044 
430 1 0.83277 0.284163 0.121999 -3.99224 
432 1 0.940738 0.290319 0.119311 -3.83307 
433 1 0.0204497 0.397416 0.100906 -3.85362 
434 1 0.0784982 0.441551 0.117501 -3.87058 
436 1 0.18377 0.436933 0.116459 -4.1858 
439 1 0.364557 0.384815 0.100191 -4.18225 
438 1 0.30717 0.452245 0.116786 -4.0815 
455 1 0.38147 0.489441 0.103167 -3.73279 
440 1 0.436234 0.431209 0.117721 -3.99978 
442 1 0.553529 0.45149 0.118118 -3.39588 
443 1 0.64494 0.377164 0.101241 -3.78507 
444 1 0.707297 0.437039 0.1137 -3.61843 
447 1 0.873112 0.379361 0.103312 -4.08082 
575 1 0.854916 0.386931 0.130551 -3.8853 
446 1 0.80838 0.461282 0.117311 -3.95697 
573 1 0.761945 0.37899 0.131038 -3.63147 
463 1 0.878846 0.49823 0.102661 -4.04579 
448 1 0.949262 0.426476 0.120709 -3.68623 
449 1 0.00152244 0.500734 0.102692 -4.15763 
450 1 0.0637435 0.575172 0.118902 -4.10816 
467 1 0.126296 0.614248 0.100389 -3.94834 
451 1 0.133157 0.504797 0.100767 -4.03441 
452 1 0.170417 0.56926 0.120708 -3.97357 
453 1 0.250858 0.511123 0.104266 -4.07062 
454 1 0.323606 0.570799 0.118717 -4.11103 
597 1 0.252438 0.623192 0.133317 -4.10116 
456 1 0.428723 0.561045 0.11359 -3.94572 
587 1 0.617379 0.502599 0.130062 -3.51305 
458 1 0.548726 0.578488 0.119088 -3.81196 
461 1 0.736315 0.508039 0.100377 -3.76686 
460 1 0.667853 0.577622 0.111943 -3.67675 
589 1 0.739991 0.507891 0.13234 -3.90638 
462 1 0.807249 0.564244 0.116148 -4.02643 
479 1 0.880637 0.616508 0.102657 -3.76318 
464 1 0.932489 0.566794 0.117181 -3.51654 
466 1 0.0540237 0.68027 0.111816 -4.13552 
468 1 0.175192 0.688364 0.11853 -3.90072 
470 1 0.314501 0.693536 0.116583 -3.90336 
472 1 0.443275 0.69325 0.116417 -4.03957 
599 1 0.381043 0.640707 0.130209 -4.02881 
474 1 0.554488 0.677062 0.116851 -3.94785 
491 1 0.617432 0.743312 0.101998 -4.08544 
603 1 0.632185 0.642641 0.132415 -3.72435 
476 1 0.688002 0.687303 0.112994 -3.93495 
478 1 0.801157 0.690249 0.112644 -3.90832 
605 1 0.750594 0.642031 0.132582 -3.83381 
623 1 0.868711 0.743198 0.129914 -3.88815 
480 1 0.938927 0.703428 0.115375 -3.93314 
593 1 0.999107 0.631797 0.132998 -4.0657 
481 1 0.00476796 0.76034 0.100431 -3.89328 
611 1 0.110771 0.754406 0.129419 -4.10093 
609 1 0.00349209 0.755145 0.130346 -4.11634 
482 1 0.0631058 0.816226 0.114909 -3.87995 
627 1 0.10821 0.865969 0.133038 -3.87245 
613 1 0.244503 0.752355 0.133266 -4.1153 
484 1 0.189824 0.820771 0.11328 -4.06728 
615 1 0.367169 0.756759 0.131219 -4.09029 
486 1 0.296073 0.812215 0.116013 -4.09662 
631 1 0.365688 0.874653 0.130948 -4.13238 
488 1 0.429793 0.801721 0.115347 -4.03655 
633 1 0.496342 0.869785 0.132555 -3.95043 
490 1 0.555078 0.828466 0.116866 -3.6509 
619 1 0.61971 0.758067 0.131539 -4.12539 
492 1 0.676303 0.823699 0.114164 -3.88611 
494 1 0.812346 0.82208 0.11671 -3.74661 
639 1 0.87009 0.868646 0.131695 -3.82416 
496 1 0.932052 0.808087 0.11404 -4.10228 
513 1 0.0163007 0.993588 0.132332 -3.97339 
498 1 0.0608107 0.933424 0.11534 -4.14185 
389 1 0.245551 0.990242 0.100829 -3.90046 
515 1 0.129334 0.993651 0.131906 -3.90194 
500 1 0.178451 0.93696 0.114714 -4.07256 
502 1 0.296847 0.923438 0.117395 -4.13304 
519 1 0.372839 0.989956 0.132331 -4.12832 
504 1 0.444956 0.9408 0.115695 -3.93187 
506 1 0.548714 0.946717 0.116511 -4.13747 
509 1 0.74673 0.885912 0.102923 -3.95599 
397 1 0.747486 0.99387 0.100381 -4.01614 
508 1 0.683202 0.948968 0.115949 -3.81611 
510 1 0.81619 0.938239 0.116584 -4.13578 
625 1 0.991667 0.879643 0.133004 -4.16916 
512 1 0.940201 0.942703 0.116575 -4.0752 
514 1 0.0815111 0.0436087 0.150276 -3.84926 
657 1 0.0235609 0.115049 0.166352 -3.80031 
516 1 0.180996 0.0502003 0.148935 -3.84805 
518 1 0.328914 0.0587073 0.147235 -3.9614 
661 1 0.261021 0.117529 0.162949 -4.04618 
520 1 0.428601 0.0575923 0.148733 -3.98974 
649 1 0.486359 0.000302371 0.164918 -4.16622 
665 1 0.489072 0.121636 0.161367 -3.84042 
521 1 0.500427 0.001063 0.136793 -3.98227 
522 1 0.553321 0.070772 0.150392 -3.95904 
651 1 0.616623 0.0107042 0.163192 -3.98059 
524 1 0.674695 0.064862 0.146357 -3.90584 
667 1 0.625477 0.119268 0.166359 -4.04466 
541 1 0.75525 0.113181 0.134278 -3.92928 
669 1 0.751691 0.110487 0.164745 -4.15399 
526 1 0.822924 0.0640612 0.147773 -3.82713 
528 1 0.951284 0.04751 0.150156 -4.07714 
530 1 0.0699837 0.188932 0.153207 -4.15218 
532 1 0.18672 0.201621 0.147237 -3.95186 
659 1 0.141855 0.128037 0.165483 -4.01147 
663 1 0.371536 0.132027 0.163032 -4.04224 
534 1 0.311467 0.176948 0.146036 -3.89257 
536 1 0.436772 0.199887 0.147435 -4.03145 
538 1 0.546417 0.186789 0.148963 -4.05995 
683 1 0.620837 0.244747 0.165859 -4.07657 
557 1 0.744445 0.244297 0.136169 -4.00224 
555 1 0.629518 0.248784 0.134281 -4.11319 
540 1 0.686602 0.180245 0.149135 -4.05853 
542 1 0.814455 0.188563 0.154117 -4.01269 
543 1 0.887746 0.133078 0.1375 -3.58226 
559 1 0.896476 0.238295 0.139627 -3.86403 
544 1 0.967788 0.175296 0.150724 -3.87436 
545 1 0.0176197 0.263651 0.13863 -4.08467 
546 1 0.0891462 0.306512 0.152797 -3.77838 
689 1 0.0124604 0.373902 0.161153 -3.89751 
548 1 0.2023 0.310051 0.143914 -3.83345 
550 1 0.318782 0.298963 0.147305 -4.11125 
695 1 0.372979 0.373723 0.162673 -4.00025 
693 1 0.265901 0.374347 0.162194 -4.12267 
552 1 0.433566 0.329302 0.14538 -3.93402 
681 1 0.497697 0.259777 0.16507 -3.98515 
571 1 0.60557 0.366148 0.133533 -3.76333 
554 1 0.546951 0.311863 0.147135 -3.84478 
556 1 0.687272 0.30909 0.152743 -3.89887 
558 1 0.81922 0.321282 0.149791 -3.81553 
560 1 0.938044 0.324443 0.144551 -3.70746 
703 1 0.87839 0.358171 0.164952 -3.78844 
562 1 0.074369 0.431854 0.148853 -3.81176 
577 1 0.0195163 0.486874 0.133656 -3.97 
705 1 0.0142518 0.482066 0.163437 -3.94402 
691 1 0.155482 0.375787 0.164693 -3.93047 
564 1 0.198975 0.451179 0.148889 -4.2285 
565 1 0.252133 0.37624 0.133571 -3.7941 
566 1 0.311071 0.44617 0.146015 -4.07121 
568 1 0.439697 0.428547 0.149093 -3.98453 
711 1 0.386846 0.499637 0.165689 -4.14687 
569 1 0.507363 0.396015 0.133636 -3.46084 
570 1 0.548675 0.442154 0.151249 -3.89556 
699 1 0.614248 0.378291 0.162814 -4.09255 
572 1 0.692377 0.424366 0.146235 -3.96536 
717 1 0.74559 0.492506 0.166487 -4.12354 
574 1 0.803935 0.437461 0.15051 -4.1601 
591 1 0.886175 0.490885 0.133545 -3.90201 
576 1 0.942385 0.424829 0.147093 -3.97122 
579 1 0.120838 0.506246 0.136202 -3.74353 
578 1 0.0678776 0.568153 0.148131 -4.03138 
723 1 0.122209 0.623108 0.164248 -4.1361 
580 1 0.184501 0.558596 0.151069 -4.05585 
709 1 0.264329 0.514889 0.163709 -4.02538 
581 1 0.250815 0.520967 0.134293 -4.07941 
582 1 0.328463 0.574992 0.152159 -4.05372 
585 1 0.494845 0.517298 0.136082 -4.05974 
583 1 0.379076 0.510725 0.133768 -4.12536 
584 1 0.424575 0.583748 0.152014 -3.86017 
586 1 0.556025 0.546315 0.153846 -3.61443 
588 1 0.674952 0.557162 0.150037 -3.78033 
590 1 0.808946 0.551319 0.149351 -3.88922 
607 1 0.875821 0.618936 0.13358 -4.02248 
592 1 0.964782 0.55899 0.150964 -3.79915 
735 1 0.887416 0.613502 0.161802 -3.83278 
595 1 0.114393 0.641541 0.134591 -3.94061 
594 1 0.0532203 0.687471 0.150049 -3.87826 
739 1 0.123009 0.739703 0.163001 -3.82606 
596 1 0.191635 0.698479 0.149962 -3.79366 
725 1 0.244436 0.62507 0.165393 -4.24428 
741 1 0.2497 0.741948 0.165712 -4.0714 
598 1 0.316594 0.68987 0.148331 -4.32857 
601 1 0.492088 0.634151 0.13503 -3.79316 
600 1 0.437586 0.695417 0.148898 -4.04477 
602 1 0.554331 0.685485 0.149473 -4.05584 
604 1 0.670374 0.688762 0.15365 -3.51001 
621 1 0.743205 0.747608 0.133799 -3.99887 
606 1 0.822606 0.695457 0.150683 -4.00028 
733 1 0.764794 0.627266 0.165224 -3.76584 
608 1 0.931559 0.683021 0.149856 -3.86799 
610 1 0.0545586 0.805817 0.147461 -3.9108 
755 1 0.114495 0.855225 0.165589 -4.00159 
753 1 0.0101761 0.871102 0.165667 -4.1755 
612 1 0.168984 0.805637 0.148878 -3.97565 
757 1 0.242484 0.851636 0.16558 -3.96172 
629 1 0.251822 0.852442 0.137132 -3.83638 
614 1 0.317674 0.797105 0.151985 -3.8899 
617 1 0.488205 0.758758 0.134154 -4.01917 
616 1 0.432192 0.830143 0.149673 -3.70223 
618 1 0.567378 0.810204 0.148702 -4.15108 
747 1 0.638914 0.765447 0.164432 -3.55879 
620 1 0.686072 0.824637 0.145251 -3.81997 
637 1 0.760044 0.869673 0.13372 -3.88641 
622 1 0.8336 0.816385 0.150474 -3.95255 
749 1 0.761334 0.761882 0.166229 -3.84459 
624 1 0.95179 0.813984 0.149885 -3.64496 
737 1 0.999159 0.755592 0.162473 -3.582 
626 1 0.0724168 0.938726 0.147384 -4.03189 
628 1 0.179817 0.928423 0.149366 -4.20335 
645 1 0.249036 0.987267 0.160926 -3.83777 
630 1 0.310391 0.932476 0.148723 -3.92799 
647 1 0.371399 0.991183 0.165185 -4.05835 
632 1 0.426363 0.928808 0.151346 -4.07731 
523 1 0.619619 0.98245 0.136102 -3.97187 
635 1 0.617562 0.883642 0.134717 -3.9525 
634 1 0.552312 0.924909 0.154119 -4.00932 
636 1 0.689899 0.932463 0.156926 -3.75892 
525 1 0.750078 0.977218 0.134473 -3.81263 
653 1 0.764901 0.999593 0.165055 -4.05998 
638 1 0.815302 0.93132 0.149143 -3.93383 
527 1 0.882847 0.987761 0.134218 -3.81412 
767 1 0.883943 0.887049 0.166616 -3.94961 
640 1 0.961097 0.945258 0.150773 -3.87642 
642 1 0.0798152 0.0740428 0.183865 -3.87387 
644 1 0.210137 0.0546837 0.178572 -3.92447 
789 1 0.261954 0.104549 0.196985 -3.80029 
646 1 0.320905 0.050587 0.182932 -3.81555 
648 1 0.426088 0.0586052 0.180953 -4.18762 
650 1 0.556697 0.0602284 0.181271 -3.99354 
795 1 0.616979 0.113403 0.199437 -4.13908 
779 1 0.61543 0.00239498 0.196872 -4.18036 
793 1 0.509988 0.124037 0.194992 -3.95341 
652 1 0.681267 0.0575292 0.180707 -4.09904 
781 1 0.740393 0.00338988 0.197369 -3.55495 
654 1 0.812116 0.0520246 0.1857 -3.81911 
797 1 0.763862 0.122268 0.199324 -3.89477 
671 1 0.882404 0.118322 0.167687 -4.07832 
656 1 0.956338 0.0700525 0.18054 -3.77842 
658 1 0.0837112 0.175887 0.183726 -4.164 
660 1 0.192876 0.1819 0.182558 -3.92388 
675 1 0.140586 0.241305 0.168918 -3.94608 
805 1 0.261877 0.245451 0.199879 -3.89242 
662 1 0.308011 0.189732 0.182077 -3.91349 
791 1 0.376794 0.125399 0.198813 -3.91737 
664 1 0.436116 0.184479 0.179611 -4.105 
809 1 0.498125 0.242731 0.199306 -3.86806 
666 1 0.561237 0.186758 0.179085 -3.98882 
668 1 0.685881 0.162628 0.184457 -3.98696 
685 1 0.732889 0.246666 0.167253 -3.94885 
813 1 0.73826 0.24155 0.197357 -4.18896 
670 1 0.808875 0.184501 0.179521 -3.94585 
815 1 0.86728 0.248943 0.194738 -3.77377 
687 1 0.888763 0.246178 0.168995 -3.77411 
799 1 0.878803 0.135105 0.19727 -4.09121 
672 1 0.955318 0.189728 0.181261 -4.04774 
673 1 0.0287121 0.262796 0.17065 -3.86167 
674 1 0.102148 0.325636 0.17877 -3.27489 
803 1 0.137452 0.253498 0.199495 -4.20306 
676 1 0.214327 0.316092 0.184022 -4.05928 
677 1 0.249717 0.250323 0.166977 -3.95981 
679 1 0.37089 0.253158 0.166818 -4.00046 
678 1 0.328332 0.323657 0.187371 -3.95933 
697 1 0.498564 0.373157 0.166817 -4.15306 
807 1 0.375876 0.252796 0.199855 -3.98503 
680 1 0.441073 0.301592 0.187733 -3.6473 
811 1 0.620015 0.250275 0.198256 -4.20442 
682 1 0.561055 0.320771 0.182973 -4.20902 
701 1 0.747403 0.37235 0.167452 -3.95367 
684 1 0.675912 0.318221 0.182946 -4.2119 
686 1 0.803035 0.303697 0.180415 -4.12299 
831 1 0.882859 0.358602 0.198805 -4.06466 
688 1 0.947378 0.299985 0.18286 -3.75258 
690 1 0.0617144 0.42683 0.18212 -3.90552 
835 1 0.137638 0.496651 0.195202 -3.65361 