LAMMPS (15 Aug 2014)
#This file should be altered by the runner to create a valid LAMMPS input script
#with the goal of calculating the melting temperature

#TODO:
#Include multi-species stufffffff
#should region be variable or fixed?

#Variables
#timestep        0.002
variable        annealT equal 2300
variable	highT equal 5000
variable	annealP equal 0.0
variable	annealTime equal 10000


#Units/Boundary
units           metal
boundary        p p p
atom_style      atomic


#Arrange the atoms
lattice         bcc 2.866
Lattice spacing in x,y,z = 2.866 2.866 2.866
region          box block -4 4 -4 4 -15 15  #-5 5 -5 5 -30 30
create_box      1 box
Created orthogonal box = (-11.464 -11.464 -42.99) to (11.464 11.464 42.99)
  1 by 1 by 3 MPI processor grid
create_atoms    1 box
Created 3840 atoms
mass 		1 1.0

#Interactions
pair_style      kim LAMMPSvirial EAM_Dynamo_Ackland_Bacon_Fe__MO_142799717516_001
pair_coeff      * * Fe


#Setup the Solid and Liquid Regions
region          1 block -6 6 -6 6 INF -0.01
group           solidzone region 1
1920 atoms in group solidzone
region          2 block -6 6 -6 6 -0.01 INF
group           meltzone  region 2
1920 atoms in group meltzone


#Setup the output
thermo_style	custom step temp press vol etotal lx
thermo          100

#Initialize both halves
velocity        all create 10 4928459 dist gaussian
fix             1 all npt temp 10 ${annealT} 0.1 iso ${annealP} ${annealP} 1.0
fix             1 all npt temp 10 2300 0.1 iso ${annealP} ${annealP} 1.0
fix             1 all npt temp 10 2300 0.1 iso 0 ${annealP} 1.0
fix             1 all npt temp 10 2300 0.1 iso 0 0 1.0
run             1000
Memory usage per processor = 2.61528 Mbytes
Step Temp Press Volume TotEng Lx 
       0           10    1049.4256      45199.1   -16568.471       22.928 
     100    5.6279387   -1196.4331    45262.463   -16567.801    22.938709 
     200    6.7993276    879.56666     45212.32   -16566.745    22.930235 
     300    7.9458392   -572.91269    45251.116   -16565.299    22.936792 
     400    10.101612   -193.65282    45244.554   -16563.385    22.935683 
     500    11.796355    2103.8448    45193.081   -16560.816    22.926982 
     600    15.799392   -2589.2224    45314.009   -16557.491    22.947413 
     700    20.358133    2557.4636    45193.645   -16553.141    22.927078 
     800    27.253684    -1730.546    45307.225   -16547.441    22.946268 
     900    32.911019     1132.977    45250.845   -16539.826    22.936746 
    1000    43.717303   -2074.3129    45343.879   -16529.742    22.952454 
Loop time of 2.51712 on 3 procs for 1000 steps with 3840 atoms

Pair  time (%) = 1.95565 (77.6938)
Neigh time (%) = 0 (0)
Comm  time (%) = 0.358754 (14.2526)
Outpt time (%) = 0.00062712 (0.0249142)
Other time (%) = 0.202092 (8.02869)

Nlocal:    1280 ave 1280 max 1280 min
Histogram: 3 0 0 0 0 0 0 0 0 0
Nghost:    2309 ave 2309 max 2309 min
Histogram: 3 0 0 0 0 0 0 0 0 0
Neighs:    45818 ave 45818 max 45818 min
Histogram: 3 0 0 0 0 0 0 0 0 0

Total # of neighbors = 137454
Ave neighs/atom = 35.7953
Neighbor list builds = 0
Dangerous builds = 0
unfix   1

fix             1 all npt temp ${annealT} ${annealT} 0.1 iso ${annealP} ${annealP} 1.0
fix             1 all npt temp 2300 ${annealT} 0.1 iso ${annealP} ${annealP} 1.0
fix             1 all npt temp 2300 2300 0.1 iso ${annealP} ${annealP} 1.0
fix             1 all npt temp 2300 2300 0.1 iso 0 ${annealP} 1.0
fix             1 all npt temp 2300 2300 0.1 iso 0 0 1.0
run             4000#10000
Memory usage per processor = 2.61528 Mbytes
Step Temp Press Volume TotEng Lx 
    1000    43.717303   -2074.3129    45343.879   -16529.742    22.952454 
    1100    48.049808    67.638396    45301.775   -16524.081    22.945348 
    1200     58.64457    2313.1925    45260.181   -16514.635    22.938323 
    1300    71.228733    766.95551    45316.708   -16501.899    22.947869 
    1400    90.470245   -2063.8056    45407.426    -16485.08    22.963172 
    1500    109.95557   -1029.2102    45416.233   -16463.141    22.964656 
    1600    135.88336    2224.5875    45380.997   -16434.471    22.958716 
    1700    178.51143     1892.186    45436.208   -16397.311    22.968022 
    1800     223.8302   -1382.3754    45582.245   -16348.971    22.992603 
    1900    289.26056   -1976.7431    45678.482   -16286.299    23.008773 
    2000    366.54429    1708.3188    45697.623   -16205.472    23.011987 
    2100    476.70529    2920.6086    45795.868   -16101.777    23.028466 
    2200    590.81372   -196.94697    46050.353   -15969.944    23.071043 
    2300    747.96598   -2224.2782    46317.165   -15804.883    23.115515 
    2400    960.29974    702.84137    46495.602    -15602.52    23.145161 
    2500    1178.2594    4320.6955    46743.928   -15360.129    23.186293 
    2600    1426.1697    2076.7275    47217.594   -15081.477    23.264347 
    2700    1677.5457   0.64961689    47753.431   -14774.663    23.352019 
    2800    1984.6632    2176.9476     48165.58   -14459.911    23.419009 
    2900    2218.3531    5572.1953    48568.305   -14169.314    23.484098 
    3000    2369.3872    4491.7557     49057.53   -13952.007    23.562686 
    3100    2409.6965   -2902.9827      49486.7   -13851.926    23.631198 
    3200    2401.7556   -8620.8002    49554.015   -13901.294    23.641908 
    3300    2304.9376   -4900.7801    49164.668   -14033.708    23.579827 
    3400    2262.3783    4224.4678    48625.623   -14150.978    23.493333 
    3500    2197.8833    7375.3588    48458.539   -14198.931    23.466394 
    3600    2244.8876    2389.2923    48683.211   -14161.107    23.502604 
    3700    2266.4306   -1769.3547    48990.885   -14058.221    23.552012 
    3800    2387.8414   -2905.4443      49179.3   -13961.783    23.582166 
    3900    2454.3079   -4879.2826    49255.799   -13937.319    23.594387 
    4000     2321.874   -2865.5673    49197.343   -13995.567     23.58505 
    4100    2302.4739   -2990.7371    48967.587    -14086.83    23.548278 
    4200     2242.857    2157.5876    48695.267    -14146.19    23.504544 
    4300    2219.2347    7044.0898    48597.659   -14148.883    23.488829 
    4400    2319.6522     1253.912    48777.874   -14100.939    23.517827 
    4500     2287.251   -1155.1466    49061.452     -14031.1    23.563314 
    4600    2344.5512   -2781.0552    49209.328   -13979.482    23.586965 
    4700    2368.7939   -2147.5546    49167.326   -13980.955    23.580252 
    4800    2359.3369   -2265.7261    49021.827   -14031.832    23.556969 
    4900    2269.3202    1583.6879    48850.274    -14099.65    23.529457 
    5000    2204.4266    3117.1272    48750.354   -14135.885    23.513404 
Loop time of 14.4652 on 3 procs for 4000 steps with 3840 atoms

Pair  time (%) = 10.3896 (71.8248)
Neigh time (%) = 1.44619 (9.99777)
Comm  time (%) = 1.84632 (12.7639)
Outpt time (%) = 0.00207814 (0.0143665)
Other time (%) = 0.781004 (5.3992)

Nlocal:    1280 ave 1296 max 1266 min
Histogram: 1 0 0 0 1 0 0 0 0 1
Nghost:    2513.33 ave 2545 max 2487 min
Histogram: 1 0 0 1 0 0 0 0 0 1
Neighs:    47643 ave 48274 max 46998 min
Histogram: 1 0 0 0 0 1 0 0 0 1

Total # of neighbors = 142929
Ave neighs/atom = 37.2211
Neighbor list builds = 251
Dangerous builds = 243
unfix   1

#Melt the liquid half (solid remains fixed)
fix             1 meltzone npt temp ${annealT} ${highT} 0.1 iso ${annealP} ${annealP} 1.0
fix             1 meltzone npt temp 2300 ${highT} 0.1 iso ${annealP} ${annealP} 1.0
fix             1 meltzone npt temp 2300 5000 0.1 iso ${annealP} ${annealP} 1.0
fix             1 meltzone npt temp 2300 5000 0.1 iso 0 ${annealP} 1.0
fix             1 meltzone npt temp 2300 5000 0.1 iso 0 0 1.0
run             5000
Memory usage per processor = 2.61528 Mbytes
Step Temp Press Volume TotEng Lx 
    5000    2204.4266    3117.1272    48750.354   -14135.885    23.513404 
    5100    2263.8043    621.14643    48805.108   -14118.878    23.522203 
    5200    2255.2655   -836.19464    48908.994   -14091.805    23.538881 
    5300    2316.3306   -846.48502    48970.017   -14055.369    23.548667 
    5400    2348.7474    324.93159    49000.009   -14011.314    23.553474 
    5500    2376.8108    1946.1762    49077.485   -13960.557    23.565881 
    5600     2411.585   -744.62464    49223.415   -13904.147    23.589215 
    5700    2475.2781   -815.71332    49366.215   -13842.306    23.612004 
    5800    2508.2937    118.06449    49465.703     -13775.8    23.627855 
    5900    2539.9283    1736.7376    49546.261   -13705.119    23.640675 
    6000    2624.0724    2686.1575    49710.082   -13629.651    23.666702 
    6100    2627.9842     -97.6793    49985.826   -13548.404    23.710381 
    6200    2639.0879   -422.88387    50315.689   -13460.023    23.762423 
    6300    2677.3394   -1027.5754    50649.687   -13363.728    23.814886 
    6400    2743.8377    -2240.413    50946.475   -13261.375     23.86131 
    6500    2753.9527    502.53704    51170.515   -13152.804    23.896237 
    6600    2801.7259    1674.3419    51383.386   -13038.018    23.929327 
    6700    2934.5638   -421.18042     51641.12   -12920.988    23.969269 
    6800    3045.5366   -52.879622    51886.832   -12803.589    24.007225 
    6900    3129.2589    1253.5603    52135.825    -12685.55    24.045565 
    7000    3237.8382   -236.79105    52368.962   -12567.862    24.081354 
    7100    3380.4023   -818.17277     52602.03   -12456.047    24.117026 
    7200    3402.3017   -1029.5579    52811.914   -12353.352    24.149059 
    7300    3489.5081    1063.4932    53018.696   -12258.853    24.180536 
    7400    3599.7926   -852.63892    53212.697    -12175.07    24.209993 
    7500    3658.0171   -631.07395    53378.892   -12099.425    24.235171 
    7600    3688.2188     457.1817    53521.088   -12035.484    24.256672 
    7700     3724.694    -746.9163    53666.324   -11973.283    24.278594 
    7800    3788.7636    105.21332    53768.015   -11920.836    24.293919 
    7900    3842.6163    1410.3356    53857.374   -11864.697     24.30737 
    8000    3899.0186    1336.2735    54025.167   -11802.771    24.332587 
    8100    3915.7907   -2215.3188    54197.118    -11737.77    24.358375 
    8200    3951.7337   -531.91099     54320.64   -11677.579    24.376866 
    8300    4115.1932   -1704.8563     54419.48   -11615.866    24.391642 
    8400    4092.6065    804.62385    54495.343   -11564.256    24.402971 
    8500     4197.463    587.19156    54590.184   -11517.498     24.41712 
    8600    4223.1239    2198.2934    54718.162   -11471.713    24.436185 
    8700    4314.8302   -107.22106    54872.874   -11420.638    24.459194 
    8800    4303.5006   -513.28945    55036.169   -11354.834    24.483433 
    8900    4391.5208   -1033.9754     55149.37   -11290.918    24.500207 
    9000    4414.7125    3188.3221    55206.478   -11236.292    24.508661 
    9100    4523.1844   -1295.0883    55353.995   -11187.492    24.530472 
    9200    4494.8243    1736.3161    55525.936   -11126.811    24.555844 
    9300    4609.5878   -874.74829    55668.952   -11066.367    24.576909 
    9400    4653.1289   -432.91393    55769.034   -11007.128    24.591628 
    9500    4779.7046   -2489.9019    55889.994   -10959.616    24.609395 
    9600    4761.7897    -177.7788    55981.322   -10911.529    24.622792 
    9700    4841.7948    598.95959    56043.008   -10864.445    24.631832 
    9800    4866.0283     400.2895    56141.807   -10813.988    24.646299 
    9900    4976.0054    -1029.814    56333.111   -10758.503    24.674261 
   10000    5005.8057   -4817.5108    56484.681   -10712.906    24.696371 
Loop time of 19.943 on 3 procs for 5000 steps with 3840 atoms

Pair  time (%) = 13.4254 (67.3187)
Neigh time (%) = 2.81742 (14.1274)
Comm  time (%) = 2.84223 (14.2518)
Outpt time (%) = 0.0023133 (0.0115995)
Other time (%) = 0.85566 (4.29053)

Nlocal:    1280 ave 1290 max 1266 min
Histogram: 1 0 0 0 0 0 0 1 0 1
Nghost:    2415.67 ave 2459 max 2369 min
Histogram: 1 0 0 0 0 1 0 0 0 1
Neighs:    43276 ave 44380 max 42147 min
Histogram: 1 0 0 0 0 1 0 0 0 1

Total # of neighbors = 129828
Ave neighs/atom = 33.8094
Neighbor list builds = 500
Dangerous builds = 500
unfix   1

#Quench the liquid half (solid remains fixed)
fix             1 meltzone npt temp ${highT} ${annealT} 0.1 iso ${annealP} ${annealP} 1.0
fix             1 meltzone npt temp 5000 ${annealT} 0.1 iso ${annealP} ${annealP} 1.0
fix             1 meltzone npt temp 5000 2300 0.1 iso ${annealP} ${annealP} 1.0
fix             1 meltzone npt temp 5000 2300 0.1 iso 0 ${annealP} 1.0
fix             1 meltzone npt temp 5000 2300 0.1 iso 0 0 1.0
run             5000
Memory usage per processor = 2.61602 Mbytes
Step Temp Press Volume TotEng Lx 
   10000    5005.8057   -4817.5108    56484.681   -10712.906    24.696371 
   10100    4946.6858    1336.1602    56437.264    -10715.12    24.689458 
   10200    4914.6721   -45.512094    56349.138   -10703.214    24.676601 
   10300    4905.7577    724.51111    56264.549   -10751.695    24.664247 
   10400    4875.0433   -2538.5424      56178.3   -10838.386    24.651638 
   10500    4760.1762   -2988.8532    56021.913    -10901.51    24.628742 
   10600    4679.6537   -167.84851    55822.148   -10963.431    24.599433 
   10700    4659.6637    1492.4133    55625.023   -11018.695    24.570443 
   10800    4510.9259    5404.8272    55458.183   -11073.879    24.545853 
   10900    4551.6632     3044.172    55361.729   -11119.945    24.531614 
   11000    4588.6919   -344.46956    55346.155   -11170.971    24.529314 
   11100    4489.2821   -2255.6181    55376.745   -11211.152    24.533832 
   11200    4398.1797   -2855.5956    55396.362   -11254.234    24.536729 
   11300    4365.9197    -3498.649      55304.6   -11302.355    24.523173 
   11400    4310.9813   -1629.6798    55083.234   -11350.874     24.49041 
   11500    4234.3291    3317.1687    54785.937   -11407.551     24.44627 
   11600    4216.2014    5377.5343    54543.513   -11468.604    24.410159 
   11700    4243.7085    1792.5695     54431.49   -11531.744    24.393436 
   11800    4122.1213    -196.6861     54420.36   -11594.308    24.391774 
   11900    4007.8191    118.57461    54421.669   -11651.758    24.391969 
   12000    3960.7915   -2160.1525    54373.827   -11707.852     24.38482 
   12100    3960.0842   -4067.2111    54230.697   -11764.688    24.363404 
   12200    3949.0352   -2226.7173    53988.626   -11820.223      24.3271 
   12300    3907.3912    1629.3137    53717.656   -11877.825    24.286332 
   12400    3803.6207    4220.1553     53514.04   -11934.329    24.255608 
   12500     3716.896     4619.507    53452.258     -11989.7     24.24627 
   12600    3681.2233    1117.7571     53508.82   -12046.659    24.254819 
   12700    3665.3777   -5449.0215    53599.642   -12099.837    24.268534 
   12800    3624.7356   -8748.7248    53582.446   -12153.691    24.265938 
   12900    3500.6396   -5346.3727    53347.855   -12210.511    24.230473 
   13000    3470.5856    4634.6095    52936.629   -12271.626    24.168053 
   13100    3416.8533    9005.9921    52573.437   -12332.515    24.112655 
   13200    3412.5175     6515.244    52436.307   -12395.665    24.091672 
   13300      3281.54    4108.9048    52518.475     -12455.1    24.104249 
   13400    3277.7882   -4937.3338    52685.294    -12515.27    24.129744 
   13500    3181.6127   -9326.7333    52746.724    -12570.47    24.139119 
   13600     3164.937    -8040.631    52587.757   -12626.117    24.114844 
   13700    3092.2648    -671.4995    52234.786   -12686.814     24.06077 
   13800    3046.4135    4943.9015    51858.489   -12747.659    24.002853 
   13900     3005.109    6469.6727    51633.704   -12813.266    23.968122 
   14000    2932.2221    5850.0812    51591.386   -12875.418    23.961572 
   14100    2902.9462   -774.50265    51672.592   -12938.066    23.974138 
   14200    2847.8295   -3271.6266    51713.841   -12998.832    23.980515 
   14300    2766.8283   -5885.3052    51627.215   -13058.476    23.967118 
   14400    2774.6633   -4330.9667      51385.4   -13122.327     23.92964 
   14500    2697.2477     3191.562    51087.151   -13186.848    23.883253 
   14600    2663.0804      2613.05    50857.872   -13250.445     23.84747 
   14700     2606.962    4868.8839    50760.479   -13314.098    23.832237 
   14800     2535.647    230.98108     50756.16   -13376.486    23.831561 
   14900    2531.3544   -5335.0215     50744.44   -13440.047    23.829727 
   15000    2468.6328   -4396.3826    50636.975   -13503.002    23.812893 
Loop time of 20.0114 on 3 procs for 5000 steps with 3840 atoms

Pair  time (%) = 13.4401 (67.1621)
Neigh time (%) = 2.85005 (14.2421)
Comm  time (%) = 2.8662 (14.3229)
Outpt time (%) = 0.00245786 (0.0122823)
Other time (%) = 0.852615 (4.26065)

Nlocal:    1280 ave 1294 max 1266 min
Histogram: 1 0 0 0 0 1 0 0 0 1
Nghost:    2501 ave 2534 max 2459 min
Histogram: 1 0 0 0 0 0 1 0 0 1
Neighs:    46692.3 ave 47445 max 46187 min
Histogram: 1 0 1 0 0 0 0 0 0 1

Total # of neighbors = 140077
Ave neighs/atom = 36.4784
Neighbor list builds = 500
Dangerous builds = 500
unfix   1

#Sample the configuration before annealing, to get a snapshot of the solid and liquid
compute   	PE all pe/atom
dump            atmelt all custom 1 output/initial.dump id type xs ys zs c_PE
fix             1 all nph iso ${annealP} ${annealP} 1.0
fix             1 all nph iso 0 ${annealP} 1.0
fix             1 all nph iso 0 0 1.0
run		1
Memory usage per processor = 4.05026 Mbytes
Step Temp Press Volume TotEng Lx 
   15000    2468.6328   -4396.3826    50636.975   -13503.002    23.812893 
   15001    2470.9006   -4705.3757    50636.962   -13503.252    23.812891 
Loop time of 0.00985392 on 3 procs for 1 steps with 3840 atoms

Pair  time (%) = 0.00281469 (28.5642)
Neigh time (%) = 0 (0)
Comm  time (%) = 0.000550667 (5.58831)
Outpt time (%) = 0.00628368 (63.7683)
Other time (%) = 0.000204881 (2.07918)

Nlocal:    1280 ave 1294 max 1266 min
Histogram: 1 0 0 0 0 1 0 0 0 1
Nghost:    2501 ave 2534 max 2459 min
Histogram: 1 0 0 0 0 0 1 0 0 1
Neighs:    46692.3 ave 47445 max 46187 min
Histogram: 1 0 1 0 0 0 0 0 0 1

Total # of neighbors = 140077
Ave neighs/atom = 36.4784
Neighbor list builds = 0
Dangerous builds = 0
uncompute 	PE
undump		atmelt
unfix 	1

#Anneal both halves
fix             1 all nph iso ${annealP} ${annealP} 1.0
fix             1 all nph iso 0 ${annealP} 1.0
fix             1 all nph iso 0 0 1.0
run             ${annealTime}
run             10000
Memory usage per processor = 2.61602 Mbytes
Step Temp Press Volume TotEng Lx 
   15001    2470.9006   -4705.3757    50636.962   -13503.252    23.812891 
   15100    2438.3199    8689.1446     50627.83   -13502.718     23.81146 
   15200    2412.1887   -1342.7362    50965.254   -13504.001    23.864242 
   15300    2424.4513   -14021.924    51184.286   -13503.442     23.89838 
   15400    2423.7265    2584.7239    50837.853   -13504.025     23.84434 
   15500    2409.9745    1796.0423    50613.272   -13502.521    23.809177 
   15600     2436.806     3851.162    50622.973   -13503.409    23.810698 
   15700    2362.6811    1266.8984    50871.398   -13503.851    23.849584 
   15800    2411.3285    -7427.245     51076.68   -13503.297    23.881621 
   15900    2369.8835   -1629.5229    50938.398   -13503.052    23.860049 
   16000    2414.4824    1600.2563    50716.958    -13503.31    23.825424 
   16100    2392.4589    6141.2135    50636.469   -13502.896    23.812814 
   16200    2426.3737     1357.579    50752.223   -13502.967    23.830945 
   16300    2441.1062   -5194.1516    50879.393   -13503.649    23.850833 
   16400    2369.0894   -1705.0987    50858.241   -13502.849    23.847527 
   16500    2372.8203    542.33637    50778.152   -13501.969    23.835003 
   16600    2364.3236    2195.1272    50780.746   -13502.694    23.835409 
   16700    2384.0769   -404.81139    50865.178   -13502.042    23.848612 
   16800    2369.4337    256.91987    50905.294   -13502.285     23.85488 
   16900    2318.7943    904.68116    50888.134   -13501.399    23.852199 
   17000    2380.4265    687.57966    50825.614   -13502.652    23.842427 
   17100    2361.7806    1483.7476     50797.71   -13502.003    23.838063 
   17200    2380.6607    1292.3532    50807.964   -13502.901    23.839666 
   17300    2386.4676   -1436.6875    50850.873   -13502.035    23.846376 
   17400    2380.8742   -843.10447    50878.671   -13502.965     23.85072 
   17500    2351.2633   -41.588622    50883.716   -13501.762    23.851508 
   17600    2355.4101    1322.7417    50887.773   -13501.864    23.852142 
   17700    2348.3733   -1471.6748    50917.191   -13501.916    23.856738 
   17800    2371.5148   -823.14949    50896.063   -13503.142    23.853437 
   17900      2411.25   -328.90471    50859.786   -13503.476    23.847769 
   18000    2346.6987    201.07811    50861.152   -13502.515    23.847982 
   18100    2355.6086    390.59479    50902.345   -13501.535    23.854419 
   18200    2355.9327   -2503.6919    50996.012   -13501.749    23.869042 
   18300    2352.4151   -1343.1154    51010.404    -13501.97    23.871287 
   18400    2368.7657    60.391682    50895.445   -13502.631    23.853341 
   18500      2376.35   -106.78074    50788.593   -13501.881    23.836636 
   18600    2318.6151    3274.0593    50781.638   -13501.298    23.835548 
   18700    2351.3686    3100.4478    50882.959   -13502.036     23.85139 
   18800    2345.5984   -3138.0493     51008.51   -13501.743    23.870991 
   18900     2346.469   -2774.7544    51028.772   -13501.387    23.874152 
   19000    2353.7149   -1591.9802    50964.973   -13502.104    23.864198 
   19100    2342.5441     1670.996    50885.209   -13501.771    23.851742 
   19200    2352.6899   -1271.5238    50940.662   -13502.177    23.860403 
   19300    2296.6401   -2970.1025    51065.292   -13501.431    23.879846 
   19400    2329.6952   -1397.2947     51025.97   -13501.498    23.873715 
   19500    2329.3883    2213.3383    50900.617   -13501.425    23.854149 
   19600    2354.7509    1320.1808    50856.861   -13501.479    23.847312 
   19700    2322.2217    2198.1962    50911.898   -13500.601    23.855911 
   19800    2328.0061   -926.84542    50998.232   -13501.154    23.869388 
   19900    2356.0265    257.27266    50984.139   -13501.658    23.867189 
   20000    2323.9164    181.12136    50949.446   -13500.748    23.861774 
   20100    2341.4108    1884.5395    50900.507   -13501.369    23.854132 
   20200    2318.5731    3021.7202    50898.988   -13501.357    23.853894 
   20300    2327.8801   -276.65335    51023.373   -13500.112     23.87331 
   20400    2293.3296   -1556.5996    51083.889   -13500.409    23.882744 
   20500     2379.189   -288.67244    50987.332   -13501.052    23.867687 
   20600    2317.9866      326.077    50907.738   -13500.007    23.855261 
   20700    2324.6697    2029.9258    50869.619   -13499.701    23.849306 
   20800    2344.6728    282.32522    50929.518   -13500.131    23.858663 
   20900    2374.8479    -1704.704    51054.992   -13500.268     23.87824 
   21000    2354.1276   -4499.7024    51133.019   -13500.267    23.890398 
   21100    2281.6221   -895.64632    51041.546    -13499.06    23.876144 
   21200    2300.7976    3509.4714    50850.862   -13499.277    23.846374 
   21300    2327.5843    1973.8175    50824.256   -13499.117    23.842214 
   21400    2302.2512    274.00395    50986.579    -13499.81     23.86757 
   21500    2316.4466   -6486.1279    51165.119    -13499.37    23.895396 
   21600    2314.7103   -2701.1469    51103.304   -13500.369    23.885769 
   21700    2354.6023    -1080.058    50934.481   -13500.186    23.859438 
   21800    2333.2667    4581.8115    50802.426   -13499.186      23.8388 
   21900    2353.9189    2183.9297    50871.507   -13499.707    23.849601 
   22000    2330.2934   -164.96623    51060.042   -13499.762    23.879027 
   22100    2325.2654   -3866.4759    51179.471   -13498.673    23.897631 
   22200    2346.3633   -2746.4418    51058.109   -13498.933    23.878726 
   22300    2357.7181    2693.9541    50845.229    -13499.11    23.845493 
   22400    2325.3783    5965.5468     50791.74   -13498.726    23.837129 
   22500    2332.8598    3539.0238    50961.282   -13498.842    23.863622 
   22600    2308.3968   -5276.0077    51201.408   -13498.928    23.901044 
   22700    2344.6069   -6347.0844    51190.888   -13499.457    23.899407 
   22800    2316.5272    4294.9996    50923.824   -13499.383    23.857774 
   22900    2334.8805    4862.8839    50781.842   -13499.282     23.83558 
   23000    2311.9385    878.77732    50921.032   -13498.945    23.857338 
   23100    2309.1336   -3746.8223    51185.038   -13499.526    23.898497 
   23200    2291.2697   -6087.2614    51279.551   -13499.059    23.913197 
   23300    2319.6059   -1197.6512    51047.918   -13499.678    23.877137 
   23400    2334.8174    3610.9996    50814.474   -13499.618    23.840685 
   23500     2328.502     4341.534    50838.516   -13499.648    23.844444 
   23600    2271.0782   -333.29189    51052.552   -13498.462     23.87786 
   23700    2281.5758   -2686.9851    51155.421   -13498.445    23.893887 
   23800    2314.2107    -457.8936    51087.323   -13498.859    23.883279 
   23900     2350.142   -1435.1008    50987.667   -13499.116     23.86774 
   24000    2332.7966    929.16285    50909.232   -13498.943    23.855495 
   24100    2298.4189    3317.8618    50944.164   -13498.853     23.86095 
   24200    2332.1127   -2022.5228    51061.227   -13499.638    23.879212 
   24300    2298.5048   -694.84528    51105.754   -13499.277    23.886151 
   24400    2349.2609    816.09744    51041.039   -13499.593    23.876065 
   24500    2297.9928   -112.02259    50998.622   -13498.405    23.869449 
   24600    2323.7847    2333.7733    50968.864   -13498.541    23.864805 
   24700     2298.353   -577.69525     51012.29   -13498.366    23.871581 
   24800    2301.4823   -1255.7933    51020.287    -13498.43    23.872828 
   24900    2326.7593    2511.8637    50996.047   -13498.973    23.869047 
   25000    2301.2132   -338.10714    51004.239   -13497.936    23.870325 
   25001    2313.8469   -602.64349    51004.242   -13498.627    23.870326 
Loop time of 39.5221 on 3 procs for 10000 steps with 3840 atoms

Pair  time (%) = 27.0327 (68.3991)
Neigh time (%) = 5.52989 (13.9919)
Comm  time (%) = 5.25252 (13.2901)
Outpt time (%) = 0.00467054 (0.0118175)
Other time (%) = 1.70228 (4.30715)

Nlocal:    1280 ave 1313 max 1256 min
Histogram: 1 0 1 0 0 0 0 0 0 1
Nghost:    2591.67 ave 2673 max 2529 min
Histogram: 1 0 0 1 0 0 0 0 0 1
Neighs:    46029.7 ave 48227 max 44589 min
Histogram: 1 1 0 0 0 0 0 0 0 1

Total # of neighbors = 138089
Ave neighs/atom = 35.9607
Neighbor list builds = 1000
Dangerous builds = 1000

#Collect hundreds of configs and PE for deep analysis of final state:
#  MSD, Coordination, TOP, BOP, RDF...?
compute   	PE all pe/atom
dump		test all custom 1 output/final.dump id type xs ys zs c_PE
run		100
Memory usage per processor = 4.05113 Mbytes
Step Temp Press Volume TotEng Lx 
   25001    2313.8469   -602.64349    51004.242   -13498.627    23.870326 
   25100    2335.8764   -1457.0037    50969.804   -13498.333    23.864952 
   25101    2331.9995   -1181.3012    50969.103   -13498.322    23.864843 
Loop time of 1.05831 on 3 procs for 100 steps with 3840 atoms

Pair  time (%) = 0.293929 (27.7735)
Neigh time (%) = 0.0571957 (5.40445)
Comm  time (%) = 0.04971 (4.69713)
Outpt time (%) = 0.609803 (57.6206)
Other time (%) = 0.04767 (4.50436)

Nlocal:    1280 ave 1315 max 1251 min
Histogram: 1 0 0 1 0 0 0 0 0 1
Nghost:    2603 ave 2626 max 2578 min
Histogram: 1 0 0 0 0 1 0 0 0 1
Neighs:    46153 ave 48378 max 44394 min
Histogram: 1 0 0 1 0 0 0 0 0 1

Total # of neighbors = 138459
Ave neighs/atom = 36.057
Neighbor list builds = 10
Dangerous builds = 10
